       N       E                     dE             d eps       ncg     rms          rms(c)
DAV:   1     0.134390551365E+02    0.13439E+02   -0.43378E+03  1272   0.631E+02
DAV:   2    -0.101839400608E+02   -0.23623E+02   -0.22789E+02  1089   0.154E+02
DAV:   3    -0.105962903747E+02   -0.41235E+00   -0.40459E+00  1241   0.212E+01
DAV:   4    -0.105996777466E+02   -0.33874E-02   -0.33820E-02  1104   0.157E+00
DAV:   5    -0.105997080843E+02   -0.30338E-04   -0.30337E-04  1138   0.138E-01    0.193E+01
DAV:   6    -0.101713683477E+02    0.42834E+00   -0.58342E-01  1336   0.981E+00    0.923E+00
DAV:   7    -0.100686117250E+02    0.10276E+00   -0.35023E-01  1332   0.730E+00    0.743E-01
DAV:   8    -0.100662986387E+02    0.23131E-02   -0.92264E-03  1025   0.130E+00    0.159E-01
DAV:   9    -0.100661163364E+02    0.18230E-03   -0.47914E-04  1091   0.295E-01    0.155E-02
DAV:  10    -0.100661095831E+02    0.67532E-05   -0.43549E-06  1081   0.244E-02    0.349E-03
DAV:  11    -0.100661090567E+02    0.52637E-06   -0.78452E-08   544   0.303E-03
   1 F= -.10066109E+02 E0= -.10061435E+02  d E =-.100661E+02
       N       E                     dE             d eps       ncg     rms          rms(c)
DAV:   1    -0.100671167896E+02   -0.10072E-02   -0.26745E-02  1015   0.230E+00    0.397E-01
DAV:   2    -0.100662210835E+02    0.89571E-03   -0.15171E-03  1031   0.515E-01    0.108E-01
DAV:   3    -0.100660692731E+02    0.15181E-03   -0.49977E-04  1436   0.285E-01    0.487E-02
DAV:   4    -0.100660598489E+02    0.94242E-05   -0.10669E-05  1030   0.262E-02    0.370E-03
DAV:   5    -0.100660602986E+02   -0.44970E-06   -0.69490E-07   553   0.113E-02    0.347E-03
DAV:   6    -0.100660602659E+02    0.32643E-07   -0.11305E-07   513   0.432E-03
   2 F= -.10066060E+02 E0= -.10061423E+02  d E =0.487908E-04
       N       E                     dE             d eps       ncg     rms          rms(c)
DAV:   1    -0.100665715094E+02   -0.51121E-03   -0.11259E-02  1009   0.149E+00    0.277E-01
DAV:   2    -0.100661708832E+02    0.40063E-03   -0.64079E-04  1025   0.336E-01    0.799E-02
DAV:   3    -0.100661146974E+02    0.56186E-04   -0.21691E-04  1434   0.188E-01    0.285E-02
DAV:   4    -0.100661263731E+02   -0.11676E-04   -0.42966E-06  1009   0.162E-02    0.242E-03
DAV:   5    -0.100661259956E+02    0.37750E-06   -0.25887E-07   516   0.708E-03    0.200E-03
DAV:   6    -0.100661260460E+02   -0.50388E-07   -0.42394E-08   509   0.257E-03
   3 F= -.10066126E+02 E0= -.10061464E+02  d E =-.657801E-04
