   1   1   1   0
  0.1181041E+02  0.2556191E-09  0.2556191E-09  0.2556191E-09  0.5000000E-15
  1.000000000000000E-004
  CAR 
 unknown system                          
     52.31389452     -4.32884011  301      7.58761315      1.00000000
     -4.329  0.0000E+00  0.0000E+00
     -4.140  0.0000E+00  0.0000E+00
     -3.951  0.0000E+00  0.0000E+00
     -3.762  0.0000E+00  0.0000E+00
     -3.574  0.0000E+00  0.0000E+00
     -3.385  0.0000E+00  0.0000E+00
     -3.196  0.0000E+00  0.0000E+00
     -3.007  0.0000E+00  0.0000E+00
     -2.818  0.0000E+00  0.0000E+00
     -2.630  0.0000E+00  0.0000E+00
     -2.441  0.0000E+00  0.0000E+00
     -2.252  0.0000E+00  0.0000E+00
     -2.063  0.0000E+00  0.0000E+00
     -1.874  0.0000E+00  0.0000E+00
     -1.686  0.1619E-01  0.3706E-03
     -1.497  0.3750E-01  0.5502E-02
     -1.308  0.4914E-01  0.1354E-01
     -1.119  0.5967E-01  0.2393E-01
     -0.930  0.6981E-01  0.3611E-01
     -0.741  0.7835E-01  0.5017E-01
     -0.553  0.8683E-01  0.6575E-01
     -0.364  0.9583E-01  0.8302E-01
     -0.175  0.1036E+00  0.1018E+00
      0.014  0.1123E+00  0.1222E+00
      0.203  0.1214E+00  0.1443E+00
      0.391  0.1304E+00  0.1681E+00
      0.580  0.1404E+00  0.1936E+00
      0.769  0.1512E+00  0.2211E+00
      0.958  0.1636E+00  0.2508E+00
      1.147  0.1777E+00  0.2830E+00
      1.335  0.1941E+00  0.3181E+00
      1.524  0.2145E+00  0.3565E+00
      1.713  0.2415E+00  0.3995E+00
      1.902  0.2757E+00  0.4482E+00
      2.091  0.3218E+00  0.5042E+00
      2.279  0.4095E+00  0.5725E+00
      2.468  0.5843E+00  0.6644E+00
      2.657  0.8569E+00  0.8055E+00
      2.846  0.1200E+01  0.1021E+01
      3.035  0.1288E+01  0.1259E+01
      3.224  0.1707E+01  0.1526E+01
      3.412  0.2475E+01  0.1919E+01
      3.601  0.1652E+01  0.2374E+01
      3.790  0.2381E+01  0.2767E+01
      3.979  0.1905E+01  0.3149E+01
      4.168  0.3081E+01  0.3630E+01
      4.356  0.3181E+01  0.4234E+01
      4.545  0.3813E+01  0.4936E+01
      4.734  0.3535E+01  0.5781E+01
      4.923  0.2660E+01  0.6385E+01
      5.112  0.3050E+01  0.6883E+01
      5.300  0.3573E+01  0.7612E+01
      5.489  0.3130E+01  0.8256E+01
      5.678  0.3664E+01  0.8884E+01
      5.867  0.6823E+01  0.9803E+01
      6.056  0.4401E+00  0.1046E+02
      6.244  0.4116E+00  0.1054E+02
      6.433  0.3687E+00  0.1062E+02
      6.622  0.3555E+00  0.1068E+02
      6.811  0.3563E+00  0.1075E+02
      7.000  0.3247E+00  0.1081E+02
      7.189  0.3164E+00  0.1088E+02
      7.377  0.3135E+00  0.1093E+02
      7.566  0.3087E+00  0.1099E+02
      7.755  0.2909E+00  0.1105E+02
      7.944  0.2840E+00  0.1110E+02
      8.133  0.2797E+00  0.1116E+02
      8.321  0.2769E+00  0.1121E+02
      8.510  0.2709E+00  0.1126E+02
      8.699  0.2618E+00  0.1131E+02
      8.888  0.2585E+00  0.1136E+02
      9.077  0.2596E+00  0.1141E+02
      9.265  0.2562E+00  0.1146E+02
      9.454  0.2523E+00  0.1151E+02
      9.643  0.2360E+00  0.1155E+02
      9.832  0.2292E+00  0.1160E+02
     10.021  0.2204E+00  0.1164E+02
     10.209  0.2043E+00  0.1168E+02
     10.398  0.1950E+00  0.1172E+02
     10.587  0.1873E+00  0.1175E+02
     10.776  0.1781E+00  0.1179E+02
     10.965  0.1665E+00  0.1182E+02
     11.154  0.1493E+00  0.1185E+02
     11.342  0.1387E+00  0.1188E+02
     11.531  0.2573E+00  0.1192E+02
     11.720  0.2670E+00  0.1196E+02
     11.909  0.2687E+00  0.1202E+02
     12.098  0.3670E+00  0.1207E+02
     12.286  0.2593E+00  0.1212E+02
     12.475  0.2501E+00  0.1217E+02
     12.664  0.2922E+00  0.1222E+02
     12.853  0.3059E+00  0.1228E+02
     13.042  0.2833E+00  0.1234E+02
     13.230  0.2715E+00  0.1239E+02
     13.419  0.2591E+00  0.1244E+02
     13.608  0.2540E+00  0.1249E+02
     13.797  0.2490E+00  0.1254E+02
     13.986  0.2472E+00  0.1258E+02
     14.174  0.2557E+00  0.1263E+02
     14.363  0.2357E+00  0.1267E+02
     14.552  0.2260E+00  0.1272E+02
     14.741  0.2366E+00  0.1276E+02
     14.930  0.3040E+00  0.1281E+02
     15.118  0.3090E+00  0.1287E+02
     15.307  0.2887E+00  0.1293E+02
     15.496  0.2984E+00  0.1298E+02
     15.685  0.3197E+00  0.1305E+02
     15.874  0.3488E+00  0.1311E+02
     16.063  0.3523E+00  0.1318E+02
     16.251  0.3465E+00  0.1325E+02
     16.440  0.3574E+00  0.1331E+02
     16.629  0.3440E+00  0.1338E+02
     16.818  0.3468E+00  0.1344E+02
     17.007  0.3560E+00  0.1351E+02
     17.195  0.3801E+00  0.1358E+02
     17.384  0.3685E+00  0.1365E+02
     17.573  0.3742E+00  0.1372E+02
     17.762  0.3648E+00  0.1379E+02
     17.951  0.3663E+00  0.1386E+02
     18.139  0.3834E+00  0.1393E+02
     18.328  0.3786E+00  0.1400E+02
     18.517  0.3738E+00  0.1407E+02
     18.706  0.3817E+00  0.1414E+02
     18.895  0.3806E+00  0.1421E+02
     19.083  0.3890E+00  0.1429E+02
     19.272  0.4012E+00  0.1436E+02
     19.461  0.3913E+00  0.1443E+02
     19.650  0.3975E+00  0.1451E+02
     19.839  0.4087E+00  0.1459E+02
     20.028  0.4101E+00  0.1466E+02
     20.216  0.4201E+00  0.1474E+02
     20.405  0.4308E+00  0.1482E+02
     20.594  0.4494E+00  0.1491E+02
     20.783  0.4606E+00  0.1499E+02
     20.972  0.4577E+00  0.1508E+02
     21.160  0.4480E+00  0.1516E+02
     21.349  0.4435E+00  0.1525E+02
     21.538  0.4322E+00  0.1533E+02
     21.727  0.4298E+00  0.1541E+02
     21.916  0.4215E+00  0.1549E+02
     22.104  0.4172E+00  0.1557E+02
     22.293  0.4127E+00  0.1565E+02
     22.482  0.4066E+00  0.1573E+02
     22.671  0.3973E+00  0.1580E+02
     22.860  0.3893E+00  0.1588E+02
     23.048  0.3828E+00  0.1595E+02
     23.237  0.3791E+00  0.1602E+02
     23.426  0.3731E+00  0.1609E+02
     23.615  0.3653E+00  0.1616E+02
     23.804  0.3577E+00  0.1623E+02
     23.993  0.3512E+00  0.1630E+02
     24.181  0.3452E+00  0.1637E+02
     24.370  0.3398E+00  0.1643E+02
     24.559  0.3344E+00  0.1649E+02
     24.748  0.3269E+00  0.1656E+02
     24.937  0.3187E+00  0.1662E+02
     25.125  0.3107E+00  0.1668E+02
     25.314  0.3102E+00  0.1673E+02
     25.503  0.3166E+00  0.1679E+02
     25.692  0.3236E+00  0.1685E+02
     25.881  0.3304E+00  0.1692E+02
     26.069  0.3341E+00  0.1698E+02
     26.258  0.3467E+00  0.1704E+02
     26.447  0.3613E+00  0.1711E+02
     26.636  0.3804E+00  0.1718E+02
     26.825  0.4012E+00  0.1725E+02
     27.013  0.4194E+00  0.1733E+02
     27.202  0.4352E+00  0.1741E+02
     27.391  0.4451E+00  0.1749E+02
     27.580  0.4544E+00  0.1758E+02
     27.769  0.4664E+00  0.1767E+02
     27.958  0.4843E+00  0.1776E+02
     28.146  0.5089E+00  0.1785E+02
     28.335  0.5267E+00  0.1795E+02
     28.524  0.5310E+00  0.1805E+02
     28.713  0.5394E+00  0.1815E+02
     28.902  0.5546E+00  0.1825E+02
     29.090  0.5809E+00  0.1836E+02
     29.279  0.6272E+00  0.1847E+02
     29.468  0.6350E+00  0.1859E+02
     29.657  0.6377E+00  0.1872E+02
     29.846  0.5905E+00  0.1883E+02
     30.034  0.5661E+00  0.1894E+02
     30.223  0.5443E+00  0.1904E+02
     30.412  0.5333E+00  0.1915E+02
     30.601  0.5364E+00  0.1925E+02
     30.790  0.5004E+00  0.1934E+02
     30.978  0.4820E+00  0.1944E+02
     31.167  0.4676E+00  0.1953E+02
     31.356  0.4546E+00  0.1961E+02
     31.545  0.4393E+00  0.1970E+02
     31.734  0.4236E+00  0.1978E+02
     31.923  0.4105E+00  0.1986E+02
     32.111  0.3823E+00  0.1994E+02
     32.300  0.3580E+00  0.2001E+02
     32.489  0.3545E+00  0.2007E+02
     32.678  0.3244E+00  0.2014E+02
     32.867  0.3182E+00  0.2020E+02
     33.055  0.3432E+00  0.2026E+02
     33.244  0.2957E+00  0.2032E+02
     33.433  0.2949E+00  0.2038E+02
     33.622  0.2997E+00  0.2043E+02
     33.811  0.3046E+00  0.2049E+02
     33.999  0.3670E+00  0.2055E+02
     34.188  0.4245E+00  0.2063E+02
     34.377  0.4882E+00  0.2071E+02
     34.566  0.6255E+00  0.2082E+02
     34.755  0.6091E+00  0.2093E+02
     34.943  0.6077E+00  0.2105E+02
     35.132  0.6018E+00  0.2116E+02
     35.321  0.5616E+00  0.2127E+02
     35.510  0.5537E+00  0.2138E+02
     35.699  0.5749E+00  0.2148E+02
     35.888  0.5537E+00  0.2159E+02
     36.076  0.5125E+00  0.2169E+02
     36.265  0.4851E+00  0.2179E+02
     36.454  0.4332E+00  0.2187E+02
     36.643  0.4127E+00  0.2195E+02
     36.832  0.4002E+00  0.2203E+02
     37.020  0.3986E+00  0.2210E+02
     37.209  0.3938E+00  0.2218E+02
     37.398  0.3856E+00  0.2225E+02
     37.587  0.3699E+00  0.2232E+02
     37.776  0.3553E+00  0.2239E+02
     37.964  0.3468E+00  0.2246E+02
     38.153  0.3591E+00  0.2253E+02
     38.342  0.3641E+00  0.2259E+02
     38.531  0.4132E+00  0.2267E+02
     38.720  0.3632E+00  0.2274E+02
     38.908  0.3495E+00  0.2281E+02
     39.097  0.3462E+00  0.2287E+02
     39.286  0.3541E+00  0.2294E+02
     39.475  0.3537E+00  0.2301E+02
     39.664  0.3432E+00  0.2308E+02
     39.852  0.3018E+00  0.2314E+02
     40.041  0.2903E+00  0.2319E+02
     40.230  0.2887E+00  0.2325E+02
     40.419  0.2748E+00  0.2330E+02
     40.608  0.2618E+00  0.2335E+02
     40.797  0.2468E+00  0.2340E+02
     40.985  0.2429E+00  0.2345E+02
     41.174  0.2573E+00  0.2349E+02
     41.363  0.2235E+00  0.2354E+02
     41.552  0.2014E+00  0.2358E+02
     41.741  0.1973E+00  0.2362E+02
     41.929  0.1650E+00  0.2365E+02
     42.118  0.1195E+00  0.2368E+02
     42.307  0.9912E-01  0.2370E+02
     42.496  0.8664E-01  0.2372E+02
     42.685  0.8084E-01  0.2373E+02
     42.873  0.7775E-01  0.2375E+02
     43.062  0.7503E-01  0.2376E+02
     43.251  0.7226E-01  0.2377E+02
     43.440  0.6944E-01  0.2379E+02
     43.629  0.6659E-01  0.2380E+02
     43.817  0.6380E-01  0.2381E+02
     44.006  0.6111E-01  0.2383E+02
     44.195  0.5847E-01  0.2384E+02
     44.384  0.5599E-01  0.2385E+02
     44.573  0.5361E-01  0.2386E+02
     44.762  0.5127E-01  0.2387E+02
     44.950  0.4896E-01  0.2388E+02
     45.139  0.4669E-01  0.2389E+02
     45.328  0.4443E-01  0.2389E+02
     45.517  0.4237E-01  0.2390E+02
     45.706  0.4044E-01  0.2391E+02
     45.894  0.3854E-01  0.2392E+02
     46.083  0.3664E-01  0.2393E+02
     46.272  0.3483E-01  0.2393E+02
     46.461  0.3292E-01  0.2394E+02
     46.650  0.3111E-01  0.2394E+02
     46.838  0.2944E-01  0.2395E+02
     47.027  0.2787E-01  0.2396E+02
     47.216  0.2634E-01  0.2396E+02
     47.405  0.2481E-01  0.2397E+02
     47.594  0.2326E-01  0.2397E+02
     47.782  0.2169E-01  0.2397E+02
     47.971  0.2015E-01  0.2398E+02
     48.160  0.1872E-01  0.2398E+02
     48.349  0.1743E-01  0.2399E+02
     48.538  0.1600E-01  0.2399E+02
     48.727  0.1456E-01  0.2399E+02
     48.915  0.1307E-01  0.2399E+02
     49.104  0.1152E-01  0.2400E+02
     49.293  0.8533E-02  0.2400E+02
     49.482  0.4531E-02  0.2400E+02
     49.671  0.9587E-03  0.2400E+02
     49.859  0.0000E+00  0.2400E+02
     50.048  0.0000E+00  0.2400E+02
     50.237  0.0000E+00  0.2400E+02
     50.426  0.0000E+00  0.2400E+02
     50.615  0.0000E+00  0.2400E+02
     50.803  0.0000E+00  0.2400E+02
     50.992  0.0000E+00  0.2400E+02
     51.181  0.0000E+00  0.2400E+02
     51.370  0.0000E+00  0.2400E+02
     51.559  0.0000E+00  0.2400E+02
     51.747  0.0000E+00  0.2400E+02
     51.936  0.0000E+00  0.2400E+02
     52.125  0.0000E+00  0.2400E+02
     52.314  0.0000E+00  0.2400E+02
     52.31389452     -4.32884011  301      7.58761315      1.00000000
     -4.329  0.0000E+00  0.0000E+00  0.0000E+00  0.0000E+00  0.0000E+00  0.0000E+00  0.0000E+00  0.0000E+00  0.0000E+00
     -4.140  0.0000E+00  0.0000E+00  0.0000E+00  0.0000E+00  0.0000E+00  0.0000E+00  0.0000E+00  0.0000E+00  0.0000E+00
     -3.951  0.0000E+00  0.0000E+00  0.0000E+00  0.0000E+00  0.0000E+00  0.0000E+00  0.0000E+00  0.0000E+00  0.0000E+00
     -3.762  0.0000E+00  0.0000E+00  0.0000E+00  0.0000E+00  0.0000E+00  0.0000E+00  0.0000E+00  0.0000E+00  0.0000E+00
     -3.574  0.0000E+00  0.0000E+00  0.0000E+00  0.0000E+00  0.0000E+00  0.0000E+00  0.0000E+00  0.0000E+00  0.0000E+00
     -3.385  0.0000E+00  0.0000E+00  0.0000E+00  0.0000E+00  0.0000E+00  0.0000E+00  0.0000E+00  0.0000E+00  0.0000E+00
     -3.196  0.0000E+00  0.0000E+00  0.0000E+00  0.0000E+00  0.0000E+00  0.0000E+00  0.0000E+00  0.0000E+00  0.0000E+00
     -3.007  0.0000E+00  0.0000E+00  0.0000E+00  0.0000E+00  0.0000E+00  0.0000E+00  0.0000E+00  0.0000E+00  0.0000E+00
     -2.818  0.0000E+00  0.0000E+00  0.0000E+00  0.0000E+00  0.0000E+00  0.0000E+00  0.0000E+00  0.0000E+00  0.0000E+00
     -2.630  0.0000E+00  0.0000E+00  0.0000E+00  0.0000E+00  0.0000E+00  0.0000E+00  0.0000E+00  0.0000E+00  0.0000E+00
     -2.441  0.0000E+00  0.0000E+00  0.0000E+00  0.0000E+00  0.0000E+00  0.0000E+00  0.0000E+00  0.0000E+00  0.0000E+00
     -2.252  0.0000E+00  0.0000E+00  0.0000E+00  0.0000E+00  0.0000E+00  0.0000E+00  0.0000E+00  0.0000E+00  0.0000E+00
     -2.063  0.0000E+00  0.0000E+00  0.0000E+00  0.0000E+00  0.0000E+00  0.0000E+00  0.0000E+00  0.0000E+00  0.0000E+00
     -1.874  0.0000E+00  0.0000E+00  0.0000E+00  0.0000E+00  0.0000E+00  0.0000E+00  0.0000E+00  0.0000E+00  0.0000E+00
     -1.686  0.9429E-02  0.1132E-04  0.3398E-04  0.1132E-04  0.8507E-07  0.8524E-07  0.1793E-06  0.8507E-07  0.4655E-17
     -1.497  0.2148E-01  0.1106E-03  0.2605E-03  0.1069E-03  0.3283E-05  0.2727E-05  0.4439E-05  0.2245E-05  0.2218E-07
     -1.308  0.2765E-01  0.2626E-03  0.6432E-03  0.2160E-03  0.1188E-04  0.1433E-04  0.1844E-04  0.8229E-05  0.2817E-06
     -1.119  0.3295E-01  0.4706E-03  0.1133E-02  0.3416E-03  0.3006E-04  0.4185E-04  0.4538E-04  0.1796E-04  0.1248E-05
     -0.930  0.3791E-01  0.6667E-03  0.1725E-02  0.4618E-03  0.5043E-04  0.8254E-04  0.8965E-04  0.3748E-04  0.2225E-05
     -0.741  0.4167E-01  0.9288E-03  0.2272E-02  0.7646E-03  0.1148E-03  0.1320E-03  0.1571E-03  0.6644E-04  0.6858E-05
     -0.553  0.4528E-01  0.1235E-02  0.2924E-02  0.9977E-03  0.1789E-03  0.2267E-03  0.2562E-03  0.1003E-03  0.1181E-04
     -0.364  0.4905E-01  0.1489E-02  0.3655E-02  0.1279E-02  0.2681E-03  0.3225E-03  0.3903E-03  0.1637E-03  0.1596E-04
     -0.175  0.5172E-01  0.1854E-02  0.4298E-02  0.1783E-02  0.4641E-03  0.4562E-03  0.5842E-03  0.2433E-03  0.2886E-04
      0.014  0.5484E-01  0.2225E-02  0.5233E-02  0.1985E-02  0.6028E-03  0.7030E-03  0.8395E-03  0.3362E-03  0.3775E-04
      0.203  0.5791E-01  0.2569E-02  0.6200E-02  0.2284E-02  0.8363E-03  0.9476E-03  0.1173E-02  0.4853E-03  0.4513E-04
      0.391  0.6033E-01  0.3004E-02  0.7038E-02  0.2893E-02  0.1294E-02  0.1253E-02  0.1639E-02  0.6878E-03  0.6888E-04
      0.580  0.6313E-01  0.3434E-02  0.8246E-02  0.3121E-02  0.1634E-02  0.1818E-02  0.2246E-02  0.9395E-03  0.8578E-04
      0.769  0.6614E-01  0.3860E-02  0.9483E-02  0.3353E-02  0.2038E-02  0.2456E-02  0.3002E-02  0.1258E-02  0.1005E-03
      0.958  0.6867E-01  0.4421E-02  0.1062E-01  0.4041E-02  0.3162E-02  0.3160E-02  0.4082E-02  0.1752E-02  0.1619E-03
      1.147  0.7159E-01  0.4961E-02  0.1178E-01  0.4772E-02  0.4353E-02  0.4198E-02  0.5503E-02  0.2422E-02  0.2394E-03
      1.335  0.7495E-01  0.5499E-02  0.1340E-01  0.5087E-02  0.5528E-02  0.5817E-02  0.7435E-02  0.3314E-02  0.2938E-03
      1.524  0.7845E-01  0.6196E-02  0.1502E-01  0.5734E-02  0.7891E-02  0.7696E-02  0.1013E-01  0.4563E-02  0.3848E-03
      1.713  0.8252E-01  0.6956E-02  0.1647E-01  0.6963E-02  0.1173E-01  0.1036E-01  0.1395E-01  0.6593E-02  0.6332E-03
      1.902  0.8734E-01  0.7690E-02  0.1873E-01  0.7483E-02  0.1608E-01  0.1496E-01  0.1966E-01  0.9628E-02  0.7722E-03
      2.091  0.9335E-01  0.8468E-02  0.2133E-01  0.7941E-02  0.2272E-01  0.2133E-01  0.2807E-01  0.1425E-01  0.9010E-03
      2.279  0.1033E+00  0.9805E-02  0.2391E-01  0.9841E-02  0.4030E-01  0.3359E-01  0.4237E-01  0.2443E-01  0.1498E-02
      2.468  0.1226E+00  0.1069E-01  0.2863E-01  0.1014E-01  0.7344E-01  0.6486E-01  0.7076E-01  0.5052E-01  0.1856E-02
      2.657  0.1384E+00  0.1157E-01  0.3483E-01  0.1126E-01  0.1231E+00  0.9940E-01  0.1683E+00  0.7554E-01  0.2389E-02
      2.846  0.1334E+00  0.1389E-01  0.3496E-01  0.1300E-01  0.1577E+00  0.1077E+00  0.4278E+00  0.7352E-01  0.4723E-02
      3.035  0.1117E+00  0.1637E-01  0.3150E-01  0.1391E-01  0.2132E+00  0.1139E+00  0.4828E+00  0.6978E-01  0.8609E-02
      3.224  0.8588E-01  0.1992E-01  0.2475E-01  0.1676E-01  0.5947E+00  0.1132E+00  0.5268E+00  0.6066E-01  0.2107E-01
      3.412  0.5611E-01  0.3245E-01  0.1463E-01  0.2801E-01  0.1197E+01  0.9017E-01  0.6380E+00  0.4383E-01  0.8000E-01
      3.601  0.4491E-02  0.1886E-01  0.1814E-02  0.3395E-01  0.1154E+01  0.2014E-01  0.2185E+00  0.2208E-01  0.1180E-01
      3.790  0.8945E-02  0.3056E-01  0.9721E-02  0.4613E-01  0.1148E+01  0.1335E+00  0.6287E+00  0.6208E-01  0.7074E-01
      3.979  0.3414E-02  0.2600E-01  0.1795E-01  0.2163E-01  0.5842E+00  0.3037E+00  0.5749E+00  0.1373E+00  0.5685E-01
      4.168  0.1542E-01  0.2648E-01  0.5633E-01  0.2884E-01  0.7156E+00  0.9526E+00  0.5970E+00  0.3572E+00  0.7070E-01
      4.356  0.2171E-01  0.2083E-01  0.6844E-01  0.2427E-01  0.7366E+00  0.1003E+01  0.6954E+00  0.2611E+00  0.1072E+00
      4.545  0.3013E-01  0.1943E-01  0.7681E-01  0.2170E-01  0.6701E+00  0.1116E+01  0.8314E+00  0.4393E+00  0.3618E+00
      4.734  0.2367E-01  0.1348E-01  0.4655E-01  0.1164E-01  0.3124E+00  0.1120E+01  0.4506E+00  0.8420E+00  0.5450E+00
      4.923  0.1522E-01  0.1223E-01  0.4011E-01  0.1420E-01  0.1316E+00  0.5211E+00  0.1791E+00  0.7000E+00  0.9184E+00
      5.112  0.1190E-01  0.9689E-02  0.3035E-01  0.1383E-01  0.7863E-01  0.4042E+00  0.4256E+00  0.5662E+00  0.1397E+01
      5.300  0.1504E-01  0.7902E-02  0.2658E-01  0.9580E-02  0.6928E-01  0.3846E+00  0.5014E+00  0.6169E+00  0.1840E+01
      5.489  0.1059E-01  0.6284E-02  0.2008E-01  0.6392E-02  0.9238E-01  0.4015E+00  0.2840E+00  0.7585E+00  0.1484E+01
      5.678  0.1193E-01  0.4478E-02  0.1577E-01  0.5002E-02  0.1181E+00  0.5839E+00  0.2322E+00  0.1146E+01  0.1496E+01
      5.867  0.1335E-01  0.3628E-02  0.1035E-01  0.5031E-02  0.1955E+00  0.1241E+01  0.2197E+00  0.3397E+01  0.1693E+01
      6.056  0.1774E-01  0.4864E-02  0.1084E-01  0.4010E-02  0.7503E-01  0.1112E+00  0.1137E+00  0.2063E-01  0.5771E-01
      6.244  0.2213E-01  0.6458E-02  0.1474E-01  0.5604E-02  0.7094E-01  0.1057E+00  0.1037E+00  0.1722E-01  0.3376E-01
      6.433  0.2482E-01  0.7917E-02  0.1775E-01  0.7311E-02  0.5826E-01  0.9138E-01  0.8463E-01  0.1707E-01  0.2236E-01
      6.622  0.2714E-01  0.1053E-01  0.2200E-01  0.9992E-02  0.5697E-01  0.7567E-01  0.7812E-01  0.1566E-01  0.1368E-01
      6.811  0.2903E-01  0.1236E-01  0.2547E-01  0.1191E-01  0.5540E-01  0.7017E-01  0.7415E-01  0.1395E-01  0.1166E-01
      7.000  0.2933E-01  0.1271E-01  0.2734E-01  0.1247E-01  0.4219E-01  0.6311E-01  0.6139E-01  0.1255E-01  0.9380E-02
      7.189  0.2996E-01  0.1352E-01  0.2944E-01  0.1359E-01  0.4164E-01  0.5435E-01  0.5760E-01  0.1167E-01  0.7109E-02
      7.377  0.3062E-01  0.1406E-01  0.3148E-01  0.1430E-01  0.4100E-01  0.4959E-01  0.5506E-01  0.1088E-01  0.6290E-02
      7.566  0.3087E-01  0.1445E-01  0.3338E-01  0.1487E-01  0.3902E-01  0.4600E-01  0.5205E-01  0.1004E-01  0.5717E-02
      7.755  0.2982E-01  0.1464E-01  0.3507E-01  0.1525E-01  0.3096E-01  0.4214E-01  0.4534E-01  0.9243E-02  0.4944E-02
      7.944  0.2948E-01  0.1472E-01  0.3640E-01  0.1578E-01  0.3030E-01  0.3743E-01  0.4263E-01  0.8520E-02  0.4142E-02
      8.133  0.2918E-01  0.1477E-01  0.3814E-01  0.1595E-01  0.2933E-01  0.3458E-01  0.4037E-01  0.7848E-02  0.3756E-02
      8.321  0.2878E-01  0.1484E-01  0.4014E-01  0.1609E-01  0.2813E-01  0.3265E-01  0.3836E-01  0.7311E-02  0.3543E-02
      8.510  0.2774E-01  0.1483E-01  0.4238E-01  0.1612E-01  0.2487E-01  0.3108E-01  0.3550E-01  0.6935E-02  0.3334E-02
      8.699  0.2642E-01  0.1443E-01  0.4443E-01  0.1585E-01  0.2154E-01  0.2920E-01  0.3226E-01  0.6506E-02  0.3008E-02
      8.888  0.2542E-01  0.1418E-01  0.4709E-01  0.1595E-01  0.2046E-01  0.2720E-01  0.3010E-01  0.6092E-02  0.2732E-02
      9.077  0.2450E-01  0.1394E-01  0.5160E-01  0.1590E-01  0.1977E-01  0.2566E-01  0.2831E-01  0.5768E-02  0.2503E-02
      9.265  0.2339E-01  0.1371E-01  0.5331E-01  0.1569E-01  0.1895E-01  0.2498E-01  0.2654E-01  0.5451E-02  0.2319E-02
      9.454  0.2227E-01  0.1326E-01  0.5542E-01  0.1527E-01  0.1788E-01  0.2418E-01  0.2469E-01  0.5270E-02  0.2153E-02
      9.643  0.2044E-01  0.1279E-01  0.5211E-01  0.1474E-01  0.1548E-01  0.2306E-01  0.2238E-01  0.4992E-02  0.2031E-02
      9.832  0.1892E-01  0.1236E-01  0.5299E-01  0.1425E-01  0.1378E-01  0.2264E-01  0.2051E-01  0.4783E-02  0.1887E-02
     10.021  0.1743E-01  0.1176E-01  0.5276E-01  0.1377E-01  0.1269E-01  0.2191E-01  0.1864E-01  0.4540E-02  0.1709E-02
     10.209  0.1608E-01  0.1103E-01  0.4856E-01  0.1335E-01  0.1198E-01  0.2015E-01  0.1681E-01  0.4145E-02  0.1551E-02
     10.398  0.1492E-01  0.1056E-01  0.4681E-01  0.1316E-01  0.1152E-01  0.1888E-01  0.1543E-01  0.3931E-02  0.1465E-02
     10.587  0.1382E-01  0.1021E-01  0.4552E-01  0.1297E-01  0.1107E-01  0.1786E-01  0.1429E-01  0.3739E-02  0.1381E-02
     10.776  0.1254E-01  0.9595E-02  0.4441E-01  0.1241E-01  0.1023E-01  0.1716E-01  0.1290E-01  0.3465E-02  0.1287E-02
     10.965  0.1083E-01  0.8622E-02  0.4375E-01  0.1131E-01  0.8752E-02  0.1659E-01  0.1111E-01  0.3288E-02  0.1139E-02
     11.154  0.9342E-02  0.7653E-02  0.3996E-01  0.1016E-01  0.7507E-02  0.1515E-01  0.9486E-02  0.2963E-02  0.1015E-02
     11.342  0.8215E-02  0.7060E-02  0.3787E-01  0.9453E-02  0.6686E-02  0.1429E-01  0.8400E-02  0.2699E-02  0.9401E-03
     11.531  0.6056E-01  0.7653E-02  0.3600E-01  0.1117E-01  0.2228E-01  0.2773E-01  0.7513E-02  0.1711E-01  0.8620E-03
     11.720  0.6684E-01  0.8017E-02  0.3341E-01  0.1299E-01  0.2435E-01  0.2733E-01  0.6587E-02  0.1758E-01  0.7958E-03
     11.909  0.6784E-01  0.8424E-02  0.3281E-01  0.1435E-01  0.2465E-01  0.2640E-01  0.5838E-02  0.1702E-01  0.7699E-03
     12.098  0.1029E+00  0.1021E-01  0.3829E-01  0.2053E-01  0.3561E-01  0.3395E-01  0.5577E-02  0.2339E-01  0.9593E-03
     12.286  0.6967E-01  0.8040E-02  0.2683E-01  0.1704E-01  0.2478E-01  0.2342E-01  0.3904E-02  0.1585E-01  0.8544E-03
     12.475  0.6669E-01  0.8298E-02  0.2624E-01  0.1683E-01  0.2345E-01  0.2191E-01  0.3453E-02  0.1512E-01  0.7312E-03
     12.664  0.7100E-01  0.1082E-01  0.3614E-01  0.2094E-01  0.2635E-01  0.2424E-01  0.3859E-02  0.1677E-01  0.7575E-03
     12.853  0.6764E-01  0.1192E-01  0.4083E-01  0.2521E-01  0.2693E-01  0.2477E-01  0.4231E-02  0.1607E-01  0.9718E-03
     13.042  0.5899E-01  0.1150E-01  0.4133E-01  0.2299E-01  0.2346E-01  0.2373E-01  0.3865E-02  0.1459E-01  0.8043E-03
     13.230  0.5549E-01  0.1187E-01  0.3675E-01  0.2515E-01  0.2330E-01  0.2105E-01  0.3708E-02  0.1391E-01  0.8314E-03
     13.419  0.4981E-01  0.1227E-01  0.3555E-01  0.2536E-01  0.2188E-01  0.1986E-01  0.3821E-02  0.1280E-01  0.7624E-03
     13.608  0.4629E-01  0.1283E-01  0.3418E-01  0.2701E-01  0.2163E-01  0.1875E-01  0.3955E-02  0.1218E-01  0.7673E-03
     13.797  0.4363E-01  0.1353E-01  0.3135E-01  0.2903E-01  0.2172E-01  0.1722E-01  0.4359E-02  0.1157E-01  0.7950E-03
     13.986  0.4125E-01  0.1426E-01  0.2986E-01  0.3067E-01  0.2162E-01  0.1627E-01  0.5173E-02  0.1113E-01  0.8199E-03
     14.174  0.3905E-01  0.1504E-01  0.2798E-01  0.3742E-01  0.2363E-01  0.1518E-01  0.5968E-02  0.1074E-01  0.8840E-03
     14.363  0.3656E-01  0.1532E-01  0.2490E-01  0.3270E-01  0.2099E-01  0.1369E-01  0.6309E-02  0.1022E-01  0.8428E-03
     14.552  0.3422E-01  0.1551E-01  0.2234E-01  0.3248E-01  0.2024E-01  0.1242E-01  0.6477E-02  0.9799E-02  0.8006E-03
     14.741  0.3756E-01  0.1572E-01  0.2234E-01  0.3268E-01  0.1980E-01  0.1211E-01  0.1076E-01  0.9663E-02  0.7639E-03
     14.930  0.5994E-01  0.1769E-01  0.2310E-01  0.3360E-01  0.1948E-01  0.1166E-01  0.3238E-01  0.9527E-02  0.7377E-03
     15.118  0.5680E-01  0.2015E-01  0.2326E-01  0.3491E-01  0.1946E-01  0.1121E-01  0.3386E-01  0.9414E-02  0.7571E-03
     15.307  0.5105E-01  0.1909E-01  0.2234E-01  0.3473E-01  0.1917E-01  0.1062E-01  0.2856E-01  0.9099E-02  0.7327E-03
     15.496  0.5904E-01  0.1877E-01  0.2253E-01  0.3512E-01  0.2012E-01  0.1032E-01  0.2675E-01  0.8920E-02  0.6753E-03
     15.685  0.6952E-01  0.1904E-01  0.2322E-01  0.3568E-01  0.2058E-01  0.9847E-02  0.2939E-01  0.8688E-02  0.6689E-03
     15.874  0.7813E-01  0.2241E-01  0.2618E-01  0.3255E-01  0.1901E-01  0.1012E-01  0.3689E-01  0.8588E-02  0.9936E-03
     16.063  0.7555E-01  0.2416E-01  0.2775E-01  0.3218E-01  0.1845E-01  0.1031E-01  0.3742E-01  0.8598E-02  0.1335E-02
     16.251  0.7126E-01  0.2436E-01  0.2884E-01  0.3230E-01  0.1812E-01  0.1037E-01  0.3578E-01  0.8562E-02  0.1228E-02
     16.440  0.7385E-01  0.2668E-01  0.2965E-01  0.3111E-01  0.1747E-01  0.1026E-01  0.3821E-01  0.8299E-02  0.1331E-02
     16.629  0.7030E-01  0.2522E-01  0.2899E-01  0.3208E-01  0.1742E-01  0.9831E-02  0.3418E-01  0.8149E-02  0.1445E-02
     16.818  0.6924E-01  0.2580E-01  0.2940E-01  0.3392E-01  0.1776E-01  0.9779E-02  0.3267E-01  0.8209E-02  0.1947E-02
     17.007  0.7113E-01  0.2711E-01  0.3017E-01  0.3497E-01  0.1786E-01  0.9737E-02  0.3233E-01  0.8186E-02  0.2589E-02
     17.195  0.7528E-01  0.3056E-01  0.3148E-01  0.3858E-01  0.1867E-01  0.9890E-02  0.3220E-01  0.8289E-02  0.3999E-02
     17.384  0.6805E-01  0.2988E-01  0.3267E-01  0.3842E-01  0.1817E-01  0.9957E-02  0.3094E-01  0.8303E-02  0.3765E-02
     17.573  0.6719E-01  0.3165E-01  0.3304E-01  0.3922E-01  0.1816E-01  0.9964E-02  0.3090E-01  0.8215E-02  0.4368E-02
     17.762  0.6405E-01  0.3085E-01  0.3328E-01  0.3856E-01  0.1770E-01  0.9653E-02  0.2971E-01  0.8049E-02  0.4029E-02
     17.951  0.6298E-01  0.3176E-01  0.3383E-01  0.3877E-01  0.1750E-01  0.9531E-02  0.2946E-01  0.7959E-02  0.4261E-02
     18.139  0.6543E-01  0.3556E-01  0.3494E-01  0.4013E-01  0.1765E-01  0.9659E-02  0.2980E-01  0.8049E-02  0.5082E-02
     18.328  0.6206E-01  0.3478E-01  0.3594E-01  0.4031E-01  0.1738E-01  0.9835E-02  0.2924E-01  0.8178E-02  0.4804E-02
     18.517  0.5956E-01  0.3465E-01  0.3656E-01  0.3953E-01  0.1679E-01  0.9978E-02  0.2870E-01  0.8217E-02  0.4713E-02
     18.706  0.5855E-01  0.3623E-01  0.3677E-01  0.4258E-01  0.1720E-01  0.9966E-02  0.2847E-01  0.8220E-02  0.4882E-02
     18.895  0.5645E-01  0.3715E-01  0.3631E-01  0.4343E-01  0.1684E-01  0.9773E-02  0.2804E-01  0.8118E-02  0.5154E-02
     19.083  0.5525E-01  0.3896E-01  0.3634E-01  0.4645E-01  0.1732E-01  0.9841E-02  0.2783E-01  0.8251E-02  0.5533E-02
     19.272  0.5529E-01  0.4362E-01  0.3662E-01  0.4791E-01  0.1725E-01  0.9868E-02  0.2764E-01  0.8250E-02  0.6047E-02
     19.461  0.5193E-01  0.4151E-01  0.3674E-01  0.4765E-01  0.1675E-01  0.9901E-02  0.2682E-01  0.8305E-02  0.6038E-02
     19.650  0.5070E-01  0.4266E-01  0.3727E-01  0.4951E-01  0.1693E-01  0.1013E-01  0.2669E-01  0.8520E-02  0.6355E-02
     19.839  0.5025E-01  0.4579E-01  0.3780E-01  0.5171E-01  0.1704E-01  0.1037E-01  0.2667E-01  0.8667E-02  0.6843E-02
     20.028  0.4789E-01  0.4704E-01  0.3726E-01  0.5379E-01  0.1694E-01  0.1017E-01  0.2638E-01  0.8582E-02  0.7096E-02
     20.216  0.4649E-01  0.5039E-01  0.3706E-01  0.5710E-01  0.1696E-01  0.1009E-01  0.2636E-01  0.8532E-02  0.7439E-02
     20.405  0.4526E-01  0.5680E-01  0.3699E-01  0.5839E-01  0.1635E-01  0.1007E-01  0.2599E-01  0.8507E-02  0.7781E-02
     20.594  0.4391E-01  0.6207E-01  0.3745E-01  0.6402E-01  0.1639E-01  0.1027E-01  0.2577E-01  0.8753E-02  0.8134E-02
     20.783  0.4271E-01  0.6617E-01  0.3797E-01  0.6644E-01  0.1588E-01  0.1063E-01  0.2561E-01  0.8913E-02  0.8585E-02
     20.972  0.4091E-01  0.6495E-01  0.3806E-01  0.6712E-01  0.1550E-01  0.1091E-01  0.2522E-01  0.9097E-02  0.8950E-02
     21.160  0.3895E-01  0.6116E-01  0.3789E-01  0.6672E-01  0.1538E-01  0.1104E-01  0.2482E-01  0.9341E-02  0.9267E-02
     21.349  0.3699E-01  0.5953E-01  0.3721E-01  0.6820E-01  0.1525E-01  0.1098E-01  0.2427E-01  0.9512E-02  0.9562E-02
     21.538  0.3526E-01  0.5717E-01  0.3653E-01  0.6646E-01  0.1490E-01  0.1076E-01  0.2389E-01  0.9424E-02  0.9853E-02
     21.727  0.3414E-01  0.5626E-01  0.3650E-01  0.6642E-01  0.1486E-01  0.1075E-01  0.2380E-01  0.9545E-02  0.1019E-01
     21.916  0.3261E-01  0.5376E-01  0.3615E-01  0.6552E-01  0.1454E-01  0.1069E-01  0.2354E-01  0.9587E-02  0.1050E-01
     22.104  0.3120E-01  0.5251E-01  0.3573E-01  0.6557E-01  0.1428E-01  0.1081E-01  0.2320E-01  0.9753E-02  0.1080E-01
     22.293  0.2989E-01  0.5159E-01  0.3527E-01  0.6523E-01  0.1403E-01  0.1093E-01  0.2279E-01  0.9889E-02  0.1108E-01
     22.482  0.2858E-01  0.4990E-01  0.3513E-01  0.6425E-01  0.1378E-01  0.1093E-01  0.2264E-01  0.9982E-02  0.1137E-01
     22.671  0.2719E-01  0.4793E-01  0.3466E-01  0.6271E-01  0.1334E-01  0.1080E-01  0.2234E-01  0.9946E-02  0.1162E-01
     22.860  0.2587E-01  0.4631E-01  0.3402E-01  0.6158E-01  0.1300E-01  0.1066E-01  0.2202E-01  0.9897E-02  0.1185E-01
     23.048  0.2467E-01  0.4464E-01  0.3380E-01  0.6046E-01  0.1260E-01  0.1056E-01  0.2201E-01  0.9773E-02  0.1205E-01
     23.237  0.2372E-01  0.4367E-01  0.3373E-01  0.5971E-01  0.1234E-01  0.1065E-01  0.2189E-01  0.9792E-02  0.1222E-01
     23.426  0.2272E-01  0.4262E-01  0.3360E-01  0.5834E-01  0.1189E-01  0.1073E-01  0.2162E-01  0.9746E-02  0.1233E-01
     23.615  0.2153E-01  0.4129E-01  0.3336E-01  0.5661E-01  0.1136E-01  0.1071E-01  0.2141E-01  0.9679E-02  0.1240E-01
     23.804  0.2036E-01  0.3958E-01  0.3305E-01  0.5538E-01  0.1100E-01  0.1054E-01  0.2117E-01  0.9697E-02  0.1244E-01
     23.993  0.1928E-01  0.3801E-01  0.3265E-01  0.5447E-01  0.1081E-01  0.1038E-01  0.2092E-01  0.9766E-02  0.1245E-01
     24.181  0.1827E-01  0.3675E-01  0.3202E-01  0.5378E-01  0.1069E-01  0.1018E-01  0.2067E-01  0.9773E-02  0.1247E-01
     24.370  0.1737E-01  0.3612E-01  0.3127E-01  0.5315E-01  0.1039E-01  0.1010E-01  0.2030E-01  0.9704E-02  0.1248E-01
     24.559  0.1658E-01  0.3529E-01  0.3072E-01  0.5219E-01  0.1018E-01  0.1003E-01  0.2000E-01  0.9604E-02  0.1249E-01
     24.748  0.1572E-01  0.3425E-01  0.3027E-01  0.5047E-01  0.9679E-02  0.9952E-02  0.1974E-01  0.9342E-02  0.1252E-01
     24.937  0.1472E-01  0.3300E-01  0.2951E-01  0.4901E-01  0.9197E-02  0.9788E-02  0.1940E-01  0.9148E-02  0.1252E-01
     25.125  0.1378E-01  0.3153E-01  0.2863E-01  0.4790E-01  0.8901E-02  0.9495E-02  0.1903E-01  0.9027E-02  0.1251E-01